! Touchstone file from project sms7630-SMA-R-pad
! Exported from HFSS 15.0.0
# GHZ S MA R 50.000000
! Terminal data exported
! Port[1] = PIN1_T1
! Port[2] = pad_T1
5.6              0.637118861141688 99.1605191654988 0.654786192375303 -175.693540745502 0.654786192375407 -175.693540745514 0.532955143483888 74.8055979108701 
5.7              0.629233547245492 94.6723250935535 0.658098187920446 -179.094313257154 0.658098187920142 -179.094313257112 0.532750102860409 72.8454556801928 
5.8              0.619730485840337 90.0549640622131 0.662110784903665 177.43703348624  0.662110784903378 177.437033486248 0.53149397696574 70.9070463056644 
5.9              0.608476630518187 85.2822729728799 0.666824722140347 173.889140699196 0.666824722139704 173.889140699202 0.529102515706523 68.9943103521882 
