! Touchstone file from project sms7630-SMAFull
! Exported from HFSS 15.0.0
# GHZ S MA R 50.000000
! Terminal data exported
! Port[1] = p1_T1
5.6              0.946087459569103 128.864388332843 
5.7              0.944485852723502 123.323749962322 
5.8              0.9424549618591  117.814910300044 
5.9              0.939958468416674 112.315691288964 
