! Touchstone file from project sms7630-SMAFull
! Exported from HFSS 15.0.0
# GHZ S MA R 50.000000
! Terminal data exported
! Port[1] = p1_T1
5.6              0.921992116173037 62.305080450481  
5.7              0.914159839264134 55.5191817676459 
5.8              0.905317239203775 48.3560968081409 
5.9              0.895424795229847 40.7577927174513 
