! Touchstone file from project sms7630-SMA-Rbox-pad
! Exported from HFSS 15.0.0
# GHZ S MA R 50.000000
! Terminal data exported
! Port[1] = PIN1_T1
! Port[2] = pad_T1
5.6              0.662372557882841 92.0440675274347 0.533532540970349 -169.554783979152 0.533532540967165 -169.554783979151 0.373041021106736 52.9773463587283 
5.7              0.651639078134637 87.2812212789518 0.538168600568217 -172.957335339749 0.538168600565788 -172.957335339811 0.378808630999281 51.4481004615574 
5.8              0.639301615433758 82.3462874495016 0.543420859360316 -176.444080100734 0.543420859359949 -176.44408010069 0.383886741861598 49.87718964726   
5.9              0.625224828712064 77.2030299996055 0.549292046305563 179.971615727634 0.54929204630312 179.971615727591 0.388184478116018 48.2640453705724 
