! Touchstone file from project sms7630-SMA
! Exported from HFSS 15.0.0
# GHZ S MA R 50.000000
! Terminal data exported
! Port[1] = PIN1_T1
! Port[2] = stripIn_T1
5.6              0.511479083625959 100.665496014577 0.814049971120805 -160.360886622125 0.814049971119617 -160.360886622135 0.531081030564507 120.757369657621 
5.7              0.501406987115432 96.6581968838448 0.817972526047438 -163.667792996371 0.817972526051308 -163.667792996393 0.522103948377404 118.695876323506 
5.8              0.489647407094829 92.5727630773167 0.822455109032818 -167.038499710033 0.822455109034108 -167.038499710024 0.5117059681296  116.649466497609 
5.9              0.476076535048249 88.3931928279904 0.827478862548969 -170.482215645832 0.827478862549848 -170.482215645834 0.49979105425969 114.627398134082 
