! Touchstone file from project sms7630-SMA-1port
! Exported from HFSS 15.0.0
# GHZ S MA R 50.000000
! Terminal data exported
! Port[1] = PIN1_T1
5.6              0.950472034740472 155.004284173452 
5.63333333333333 0.950464771133784 153.2484301475   
5.66666666666667 0.950411790076245 151.50525303809  
5.7              0.950315009082147 149.773648884792 
5.73333333333333 0.950174966073653 148.052554024646 
5.76666666666667 0.949990911521488 146.340948330473 
5.8              0.949760898013088 144.637858059364 
5.83333333333333 0.949481867388393 142.942358369751 
5.86666666666667 0.949149735720454 141.253575556524 
5.9              0.948759476516825 139.570689045107 
