! Touchstone file from project sms7630-SMAFull
! Exported from HFSS 15.0.0
# GHZ S MA R 50.000000
! Terminal data exported
! Port[1] = p1_T1
5.6              0.949434362343446 112.59922147375  
5.7              0.948138283369291 106.86533979191  
5.8              0.946448286090946 101.15633439514  
5.9              0.944324440556301 95.4506791306342 
