! Touchstone file from project sms7630-SMAFull
! Exported from HFSS 15.0.0
# GHZ S MA R 50.000000
! Terminal data exported
! Port[1] = p1_T1
5.6              0.942743841681614 125.241417406614 
5.7              0.940914424802793 119.55771361354  
5.8              0.938645949843628 113.9277822734   
5.9              0.935912570165927 108.331387121763 
