! Touchstone file from project sms7630-SMAFull
! Exported from HFSS 15.0.0
# GHZ S MA R 50.000000
! Terminal data exported
! Port[1] = p1_T1
5.6              0.949984346970857 132.808754431086 
5.7              0.948522138691484 127.50687540063  
5.8              0.946629213487671 122.220216786549 
5.9              0.944257693796599 116.926373695555 
