! Touchstone file from project sms7630-SMA
! Exported from HFSS 15.0.0
# GHZ S MA R 50.000000
! Terminal data exported
! Port[1] = PIN1_T1
! Port[2] = stripIn_T1
5.6              0.538834612718915 102.085439613345 0.796098047980912 -163.182506437455 0.796098047983202 -163.182506437441 0.559785354672896 113.533806632394 
5.7              0.529802302329071 98.0117560645006 0.799545972335937 -166.49326552592 0.799545972338474 -166.493265525905 0.552147155608564 111.515892270556 
5.8              0.519089623402166 93.8527963471103 0.803601324018919 -169.866312298305 0.80360132401858 -169.866312298302 0.543149977177996 109.520421556453 
5.9              0.506568784457797 89.5915645710054 0.808249831077072 -173.311091708699 0.808249831078265 -173.311091708707 0.532702626367237 107.556134213603 
