! Touchstone file from project sms7630-SMAFull
! Exported from HFSS 15.0.0
# GHZ S MA R 50.000000
! Terminal data exported
! Port[1] = p1_T1
! Port[2] = p2_T1
5.6              0.498721185550489 88.9137072666312 0.816474247178473 -172.105113544092 0.816474247175146 -172.105113544084 0.523498842719429 110.097127733509 
5.7              0.486060565509683 84.160422094507  0.821018607498328 -175.707915061485 0.821018607497936 -175.707915061483 0.512881697201723 108.278321587299 
5.8              0.47170517930381 79.2662269048326 0.82604218973218 -179.382204821989 0.82604218973248 -179.38220482199 0.500914835394572 106.520441511589 
5.9              0.455541756922921 74.2025716261723 0.831515815503855 176.862587750357 0.831515815502664 176.862587750359 0.487525886587447 104.841737413277 
